pretty_formula,e_above_hull,energy_per_atom,formation_energy_per_atom
AcAg3,0,-3.357082589,-0.201376145
AcAg,0,-3.737086965,-0.257409218
AcAl3,0,-4.205929705,-0.362947232
AcAu3,0,-4.174837349,-0.6875714
AcCd3,0,-1.987374226,-0.269418372
AcCu3,0,-4.182989933,-0.076615642
AcGa3,0,-3.833015864,-0.523185695
AcHg3,0,-1.668666815,-0.408993889
Ac3In,0,-3.936982654,-0.153302805
AcIn3,0,-3.508255535,-0.412456694
AcMg5,0,-2.092228857,-0.067346331
AcMg,0,-2.93986694,-0.073889283
AcMg149,0,-1.637095467,-0.015938605
Ac3Sn,0,-4.41073706,-0.312672434
Ac3Tl,0,-3.778603938,-0.091086734
AcZn3,0,-2.225708576,-0.239183369
AlAg2,0,-3.2114015,-0.074210347
AlAg3,0,-3.138207319,-0.077380169
AgAu,0,-3.095824665,-0.043049855
AgAu3,0,-3.20187649,-0.038581845
Ag3Au,0,-2.982581245,-0.04032627
BaAg5,0,-2.845241227,-0.164696333
BaAg,0,-2.660770638,-0.282606238
BaAg2,0,-2.825535708,-0.296181062
CaAg,0,-2.75512176,-0.337672499
CaAg2,0,-2.8568644,-0.301319846
Ca2Ag7,0,-2.888116592,-0.240508509
Ca5Ag3,0,-2.601398596,-0.287520804
CdAg3,0,-2.40650485,-0.054019906
CdAg,0,-1.94909506,-0.075860312
Cd8Ag5,0,-1.716913512,-0.064871163
GaAg2,0,-2.943174483,-0.04293991
Ga5Ag13,0,-2.925153154,-0.036335153
HfAg,0,-6.511317478,-0.11831721
Hf2Ag,0,-7.701265503,-0.12117686
In4Ag9,0,-2.847145587,-0.039987925
InAg3,0,-2.849816155,-0.038050216
KAg2,0,-2.268769509,-0.010834642
LaAg,0,-4.14250234,-0.25269194
LaAg2,0,-3.837939767,-0.30082112
LiAg3,0,-2.742698863,-0.141904345
Li3Ag,0,-2.299176293,-0.16026302
LiAg,0,-2.591841515,-0.22198762
Li8Ag5,0,-2.466757598,-0.203491682
Mg54Ag17,0,-2.030578908,-0.132359398
MgAg3,0,-2.687705529,-0.162820434
MgAg,0,-2.462937655,-0.244902605
Mg149Ag,0,-1.637460845,-0.024943217
MgAg5,0,-2.736426842,-0.109258398
NaAg2,0,-2.424080763,-0.098726825
AgPd,0,-4.065695615,-0.058518975
Ag3Pd,0,-3.478265604,-0.058809714
AgPt,0,-4.48748888,-0.04320686
ScAg4,0,-3.729836746,-0.197408762
ScAg2,0,-4.30011269,-0.300556143
ScAg,0,-4.85839154,-0.27492429
Ag3Sn,0,-3.151738673,-0.025587956
SrAg,0,-2.581503029,-0.322652944
Sr3Ag2,0,-2.416166829,-0.271893755
SrAg5,0,-2.82791464,-0.187141185
SrAg2,0,-2.758983488,-0.309171718
Sr7Ag3,0,-2.240996818,-0.211300755
TiAg,0,-5.429857813,-0.065426566
Ti2Ag,0,-6.265028023,-0.056364741
Y14Ag51,0,-3.86180751,-0.247009506
YAg,0,-4.984896925,-0.33533728
YAg2,0,-4.375108217,-0.331490073
ZnAg,0,-2.101831615,-0.049550632
Zn2Ag,0,-1.838084014,-0.045621084
ZnAg3,0,-2.479346975,-0.037338914
Zr2Ag,0,-6.750894993,-0.108635307
ZrAg,0,-5.81234342,-0.12271487
AlAu2,0,-3.750796583,-0.31888587
Al3Au8,0,-3.682818717,-0.279652773
AlAu,0,-3.903403136,-0.392444306
AlAu4,0,-3.579672368,-0.211000148
Al2Au,0,-4.010752927,-0.42074598
Ba21Al40,0,-3.354037844,-0.233700236
BaAl4,0,-3.61875882,-0.235357544
Ba4Al5,0,-3.159558518,-0.221904013
Ba7Al10,0,-3.228204606,-0.230958287
CaAl2,0,-3.493779553,-0.327322973
Ca8Al3,0,-2.631505025,-0.15244897
AlCo,0,-6.03247065,-0.60342189
Al9Co2,0,-4.685515192,-0.326159074
Al5Co2,0,-5.167143212,-0.458499701
Al45Cr7,0,-4.657762692,-0.116963266
AlCr2,0,-7.802705393,-0.128868427
Al3Cr,0,-5.358165788,-0.137912438
Al4Cu9,0,-4.201356657,-0.210122568
AlCu,0,-4.136929071,-0.213231346
AlCu3,0,-4.200537548,-0.18904255
Al2Cu,0,-4.04146503,-0.17629882
Al6Fe,0,-4.619476499,-0.198269364
AlFe3,0,-7.475975258,-0.19407631
AlFe,0,-6.43442648,-0.330459455
Al12Fe7,0,-5.797295967,-0.313293112
Hf4Al3,0,-7.684377973,-0.389896384
HfAl2,0,-6.260191063,-0.443367145
HfAl3,0,-5.694860379,-0.395216645
Al9Ir2,0,-5.193525763,-0.515291
AlIr,0,-7.25228126,-0.946316225
Al3Ir,0,-5.683343296,-0.656309189
La3Al11,0,-4.393997624,-0.388798199
LaAl,0,-4.749102491,-0.401108071
LaAl2,0,-4.639264215,-0.491233542
LaAl3,0,-4.488548909,-0.440500109
Li9Al4,0,-2.630737249,-0.15657059
Li3Al2,0,-2.826167946,-0.182143084
LiAl,0,-3.007599425,-0.17956151
Li2Al,0,-2.685359973,-0.16401048
MgAl2,0,-3.076724122,-0.043210348
Mg16Al13,0,-2.611284593,-0.045950086
Mg149Al,0,-1.641816533,-0.023189785
MnAl,0,-6.717294355,-0.263618135
MnAl6,0,-4.69187664,-0.170752591
Mn4Al11,0,-5.465917353,-0.274841885
Al12Mo,0,-4.407873992,-0.11252159
Al5Mo,0,-5.173207205,-0.239397378
Al3Mo,0,-5.843449817,-0.316786667
AlMo3,0,-9.311356765,-0.227573675
Al8Mo3,0,-6.017963245,-0.329612825
NbAl3,0,-5.763252345,-0.423890168
Nb2Al,0,-8.275332112,-0.283871605
AlNi3,0,-5.702415315,-0.429583983
Al3Ni,0,-4.65746623,-0.401120333
Al3Ni2,0,-5.171572134,-0.610280606
AlNi,0,-5.4240134,-0.659424785
Al4Ni3,0,-5.245198708,-0.625822298
Al3Ni5,0,-5.588139834,-0.56942986
Al2Os,0,-6.801340003,-0.562676972
Al13Os4,0,-5.954120635,-0.447975207
AlPd2,0,-5.532472868,-0.828026382
AlPd,0,-5.374583662,-0.909223002
AlPd5,0,-5.405091714,-0.4615594
Al3Pd2,0,-5.092819568,-0.770910404
Al3Pd5,0,-5.493699816,-0.849024786
Al21Pd8,0,-4.693803932,-0.549972487
AlPt3,0,-6.185059448,-0.705411978
AlPt,0,-5.949162776,-1.046696736
Al2Pt,0,-5.414176997,-0.896498577
Al3Pt2,0,-5.668182178,-0.99658871
Al3Pt5,0,-6.104036229,-0.912979474
Al21Pt8,0,-5.144690272,-0.759697238
AlPt2,0,-6.14994253,-0.86268887
AlRe,0,-8.410493448,-0.314513256
Al11Re4,0,-6.407936255,-0.340965335
Al12Re,0,-4.552200576,-0.135193241
AlRe2,0,-9.810143503,-0.264870975
AlRh,0,-6.64297773,-1.090423835
Al9Rh2,0,-4.902260889,-0.497993812
Al5Rh2,0,-5.521014642,-0.741796768
Al13Ru4,0,-5.582747442,-0.533879696
AlRu,0,-7.20070916,-0.688481278
Al6Ru,0,-4.867354611,-0.329501516
Al2Ru,0,-6.307086792,-0.71623381
ScAl2,0,-5.093714662,-0.483246088
Sc3Al,0,-5.953993464,-0.265568149
ScAl3,0,-4.84550127,-0.450624045
ScAl,0,-5.488817535,-0.447166265
Sc2Al,0,-5.821222578,-0.348388612
Sr8Al7,0,-2.835579447,-0.18728328
SrAl4,0,-3.558550346,-0.222874796
Sr5Al9,0,-3.267582596,-0.255957327
SrAl2,0,-3.322791842,-0.262068045
TaAl3,0,-6.091832193,-0.31686851
Ta2Al,0,-9.396605713,-0.243541193
Ta24Al19,0,-8.538701682,-0.265514589
Al12Tc,0,-4.42481058,-0.168217117
AlTc2,0,-8.571511753,-0.416492787
Al4Tc,0,-5.445934131,-0.375756215
TiAl,0,-6.225296765,-0.402681498
TiAl2,0,-5.561150925,-0.430039687
TiAl3,0,-5.182733088,-0.397373864
Ti3Al,0,-7.136112636,-0.276241326
AlV3,0,-7.882381905,-0.13038691
Al3V,0,-5.3687839,-0.286050115
Al4W,0,-5.744173286,-0.153765518
Al5W,0,-5.443170268,-0.159813264
Al12W,0,-4.531323291,-0.074641423
YAl3,0,-4.864692554,-0.436769131
Y2Al,0,-5.873537558,-0.312580398
YAl2,0,-5.200584097,-0.546053927
Zr3Al,0,-7.647128168,-0.299460903
Zr2Al3,0,-6.186710681,-0.518839989
Zr4Al3,0,-6.954757803,-0.464129606
ZrAl3,0,-5.433122356,-0.485164481
ZrAl2,0,-5.886431528,-0.538522088
BaAu5,0,-3.490600287,-0.441655943
BaAu,0,-3.31882286,-0.71961879
BaAu2,0,-3.56549163,-0.741417423
Ba3Au2,0,-3.066854651,-0.602572663
BeAu,0,-3.63479357,-0.126581113
Be5Au,0,-3.74712255,-0.082644774
BeAu2,0,-3.56450471,-0.134424912
BiAu2,0,-3.530418737,-0.048460772
CaAu5,0,-3.47769859,-0.415659293
Ca3Au,0,-2.807429524,-0.486603368
Ca5Au2,0,-2.920273175,-0.554066622
Ca5Au3,0,-3.16609123,-0.686433686
Ca7Au3,0,-2.961545191,-0.577186479
Ca5Au4,0,-3.332582051,-0.764684848
Ca3Au4,0,-3.513987091,-0.784737368
CaAu,0,-3.448805245,-0.810316314
CaAu2,0,-3.56270949,-0.712445376
Cd3Au,0,-1.635722559,-0.131218173
Cd5Au3,0,-1.970729027,-0.171339625
CdAu3,0,-2.812307489,-0.12826304
CdAu,0,-2.275212669,-0.180938251
CsAu,0,-2.39150249,-0.306900223
CuAu,0,-3.73160446,-0.045051085
Cu3Au,0,-3.927877745,-0.034954922
GaAu,0,-3.384688968,-0.229165008
Ga2Au,0,-3.346090417,-0.22999663
HfAu,0,-7.158273443,-0.544233505
HfAu3,0,-5.425639556,-0.481712348
HfAu2,0,-6.062258033,-0.561626582
Hf2Au,0,-8.168393213,-0.44094479
In2Au3,0,-3.230821988,-0.165789965
In3Au10,0,-3.270285338,-0.116922276
In2Au,0,-3.151871237,-0.226027519
K2Au3,0,-2.74913978,-0.340717363
KAu5,0,-3.137628528,-0.224394075
La14Au51,0,-4.293740186,-0.659356528
LaAu,0,-4.932278088,-0.821428018
LaAu2,0,-4.640699677,-0.80886147
Li15Au4,0,-2.546785397,-0.351267098
LiAu,0,-3.139950275,-0.54905671
Li3Au,0,-2.655496718,-0.40606361
LiAu3,0,-3.291461403,-0.35910738
Mg3Au,0,-2.427774028,-0.406069188
MgAu3,0,-3.263854991,-0.407410391
MgAu,0,-3.042769325,-0.603694605
Mg3Au13,0,-3.274472673,-0.313685603
Mg149Au,0,-1.645519242,-0.030054419
Mg2Au,0,-2.680281173,-0.51945304
MnAu4,0,-4.528655778,-0.077754342
MnAu2,0,-5.34375918,-0.108133107
NaAu2,0,-2.982573183,-0.362499685
Na2Au,0,-2.252217098,-0.285884582
Nb3Au2,0,-7.521383476,-0.143974182
NbAu2,0,-5.669605833,-0.116016457
Pb2Au,0,-3.652079435,-0.084101115
PbAu2,0,-3.492797497,-0.071901097
Pd3Au,0,-4.76658745,-0.061170225
PdAu3,0,-3.829963543,-0.078948148
RbAu,0,-2.399798095,-0.25462462
Rb2Au3,0,-2.661662542,-0.290760866
RbAu5,0,-3.07825205,-0.180651238
Rb3Au7,0,-2.862153743,-0.265523866
ScAu4,0,-4.432863872,-0.546772416
ScAu2,0,-5.112271443,-0.817995337
ScAu,0,-5.601431495,-0.796924575
SnAu,0,-3.824411518,-0.182805555
Sn4Au,0,-3.939340841,-0.077059989
Sn2Au,0,-3.892518045,-0.128314922
SrAu,0,-3.26330137,-0.783411615
Sr3Au2,0,-2.993805507,-0.672700697
Sr7Au3,0,-2.694393997,-0.532074132
SrAu2,0,-3.483392412,-0.738861082
SrAu5,0,-3.459006142,-0.449833237
Ta2Au,0,-9.044334605,-0.049366319
TiAu,0,-6.01248905,-0.427018133
TiAu4,0,-4.477178852,-0.278701797
TiAu2,0,-5.23921832,-0.424299549
Ti3Au,0,-7.092186943,-0.350887808
Tl2Au,0,-2.69653624,-0.027126243
V3Au,0,-7.66531279,-0.03188997
Y2Au,0,-6.049476598,-0.646615672
YAu2,0,-5.198563397,-0.860225693
YAu,0,-5.75803729,-0.887437975
YAu3,0,-4.785972498,-0.7137656
Zn3Au,0,-1.926771452,-0.153697713
ZnAu3,0,-2.921155303,-0.147587736
ZnAu,0,-2.475028255,-0.201707603
Zn3Au5,0,-2.717184758,-0.193740649
ZrAu4,0,-4.743939019,-0.415383043
ZrAu2,0,-5.60696535,-0.575248377
ZrAu3,0,-5.094619419,-0.502378069
Zr2Au,0,-7.20749314,-0.417873673
Zr3Au,0,-7.572321759,-0.343226669
Ba11Bi10,0,-3.747117699,-0.882690098
Ba5Bi3,0,-3.556048836,-0.891335948
Ba4Bi3,0,-3.676471114,-0.906026907
Ba2Bi3,0,-3.879658936,-0.770874511
Ba2Cd,0,-1.821401793,-0.233427902
BaCd,0,-1.74413209,-0.324468083
BaCd2,0,-1.59045964,-0.339105517
BaCd11,0,-1.17113477,-0.172245473
Ba7Cd31,0,-1.342641272,-0.241880203
BaCu13,0,-3.957870428,-0.013913773
BaCu,0,-3.078250519,-0.066307554
BaGa2,0,-3.121347287,-0.454993773
Ba8Ga7,0,-2.809467257,-0.3656417
BaGa4,0,-3.249639552,-0.434934068
Ba2Hg,0,-1.759844587,-0.375551997
BaHg2,0,-1.344757268,-0.500765748
BaHg3,0,-1.138502681,-0.429586429
BaHg,0,-1.64324422,-0.529102165
BaHg6,0,-0.820980304,-0.285732253
BaIn2,0,-2.950295787,-0.474192342
BaIn,0,-2.751953108,-0.413727109
BaIn4,0,-2.93013657,-0.343731169
Ba9In4,0,-2.458654382,-0.279517745
Ba6Mg23,0,-1.743013576,-0.072418195
BaMg2,0,-1.793102931,-0.082015071
Ba2Mg17,0,-1.690435753,-0.052389351
BaMg149,0,-1.621137758,-0.01466774
BaNa2,0,-1.536912269,-0.020320026
Ba3Pb5,0,-3.545357395,-0.501722122
BaPb3,0,-3.631707963,-0.364264368
BaPb,0,-3.402109548,-0.582282598
Ba2Pb,0,-3.059980232,-0.538564378
BaPd,0,-4.093352785,-0.539746885
BaPd5,0,-4.973586378,-0.333972318
BaPd2,0,-4.672915557,-0.576305577
BaPt5,0,-5.851806035,-0.483683008
BaPt,0,-4.754221243,-0.763509963
BaPt2,0,-5.406601978,-0.727184825
BaRh2,0,-5.611584342,-0.065383382
BaSn,0,-3.665378685,-0.698383133
BaSn3,0,-3.950651515,-0.462455016
Ba3Sn5,0,-3.850404392,-0.622808366
BaSn2,0,-3.894967693,-0.580504843
Ba2Sn,0,-3.224715927,-0.605187672
BaTl2,0,-2.604744662,-0.385074938
BaTl4,0,-2.531666149,-0.252981213
BaZn,0,-1.76275238,-0.164042138
BaZn5,0,-1.595749231,-0.2142946
Ba2Zn,0,-1.843210303,-0.135872255
BaZn13,0,-1.480922591,-0.161540992
CaBe13,0,-3.712808753,-0.094444536
BeCo,0,-5.73639035,-0.310087963
Be3Co,0,-4.838022321,-0.25356591
Be5Co,0,-4.49205575,-0.188214664
Be12Cr,0,-4.253152603,-0.057150366
Be2Cr,0,-5.931419983,-0.224111739
Be2Cu,0,-3.99797257,-0.13646819
Be3Cu,0,-3.936736327,-0.104955433
Be2Fe,0,-5.590759113,-0.275741866
HfBe5,0,-5.010600052,-0.23271379
Hf2Be17,0,-4.621182157,-0.224713305
HfBe13,0,-4.359369975,-0.1730699
Be3Ir,0,-5.482823418,-0.459908869
LaBe13,0,-3.962353236,-0.133651714
Mg149Be,0,-1.632950996,-0.014360866
MnBe2,0,-5.797621111,-0.249464401
MnBe12,0,-4.218174213,-0.058899253
Be2Mo,0,-6.429362268,-0.313507624
Be12Mo,0,-4.411745005,-0.12146283
Be17Nb2,0,-4.607387766,-0.194195359
Be12Nb,0,-4.380334522,-0.147683415
Be2Nb3,0,-7.68632964,-0.121401964
Be3Nb,0,-5.560770158,-0.22552754
BeNi,0,-5.221614255,-0.459772013
Be3Ni,0,-4.532322223,-0.280095884
Be17Os3,0,-5.133113241,-0.268926961
Be5Pd,0,-4.29431035,-0.311698631
BePd2,0,-5.203088643,-0.500473072
BePd3,0,-5.213542586,-0.390926373
BePd,0,-5.03861456,-0.576000273
Be5Pt,0,-4.588653448,-0.460339936
Be22Re,0,-4.182504125,-0.061578614
Be2Re,0,-7.025032742,-0.382006718
Be3Rh,0,-5.086471606,-0.440262628
BeRh,0,-6.16517993,-0.615372408
Be17Ru3,0,-4.846753254,-0.274081496
Be3Ru,0,-5.452825028,-0.326779055
Be2Ru,0,-5.913573239,-0.326382088
Sc2Be17,0,-4.191649153,-0.17613462
ScBe5,0,-4.36983147,-0.195122881
ScBe13,0,-4.09207548,-0.164280122
SrBe13,0,-3.643109749,-0.047402557
TaBe12,0,-4.506812384,-0.140130045
Ta2Be,0,-9.310572038,-0.159338433
Ta3Be2,0,-8.78786249,-0.177491202
TaBe3,0,-6.007640363,-0.236796239
Ta2Be17,0,-4.776744743,-0.180141176
Be3Tc,0,-5.666040758,-0.269463716
Ti2Be17,0,-4.378268031,-0.198340025
TiBe2,0,-5.318672115,-0.191222707
TiBe3,0,-4.98016837,-0.198928705
Be12V,0,-4.256187692,-0.102499167
Be2V,0,-5.738500673,-0.214551849
Be12W,0,-4.549314387,-0.097702745
Be2W,0,-7.1170528,-0.302103803
YBe13,0,-4.120108411,-0.182871283
Zr2Be17,0,-4.485318287,-0.236927692
ZrBe5,0,-4.787804532,-0.244375509
ZrBe13,0,-4.281238994,-0.195420593
Ca5Bi3,0,-3.553113608,-0.839294643
Ca11Bi10,0,-3.706116675,-0.800533506
CaBi2,0,-3.798870317,-0.532319233
Ca2Bi,0,-3.389926283,-0.75506905
CsBi2,0,-3.171673445,-0.274380137
Cs3Bi,0,-1.927581045,-0.281477271
CsBi,0,-2.754816742,-0.357999247
HfBi,0,-7.092799774,-0.166544609
Bi2Ir,0,-5.560221275,-0.006782355
Bi4Ir,0,-4.898196618,-0.006835292
KBi2,0,-3.258829433,-0.289888036
KBi,0,-2.849721858,-0.34543223
K3Bi,0,-2.172865553,-0.365553577
LaBi3,0,-4.70519805,-0.544542934
LaBi,0,-5.46070433,-1.037639033
La5Bi3,0,-5.370398529,-0.816128141
LiBi,0,-3.271240615,-0.368131823
Li3Bi,0,-2.93373654,-0.528195819
Mg3Bi2,0,-2.71662408,-0.19472513
Mg149Bi,0,-1.642998832,-0.023371139
Na3Bi,0,-2.336387198,-0.377382313
NaBi,0,-2.905409005,-0.29999077
NiBi3,0,-4.381577646,-0.012625433
NiBi,0,-4.860694903,-0.02103541
BiPd3,0,-5.118166011,-0.256641172
Bi2Pd5,0,-5.085164978,-0.269510611
BiPd,0,-4.861075205,-0.320643668
Bi2Pd,0,-4.559429455,-0.233060118
Bi2Pt,0,-4.853560192,-0.235787268
BiPt,0,-5.261722535,-0.284185617
RbBi,0,-2.777230699,-0.319841996
Rb3Bi,0,-2.028735063,-0.291774477
RbBi2,0,-3.208978957,-0.271304843
Bi2Rh,0,-5.239169022,-0.188004195
Bi4Rh,0,-4.720371946,-0.130375076
BiRh,0,-5.794795413,-0.16717064
Sc5Bi3,0,-6.015495723,-0.594154273
ScBi,0,-5.770877495,-0.654155348
SrBi3,0,-3.782046648,-0.436871689
Sr2Bi3,0,-3.702927333,-0.68959436
Sr11Bi10,0,-3.595322814,-0.855891163
Sr5Bi3,0,-3.388020256,-0.872450261
Sr4Bi3,0,-3.510672981,-0.876587992
Ti8Bi9,0,-5.955756615,-0.17568466
Ti2Bi,0,-6.689288512,-0.125121964
Tl3Bi,0,-2.779519858,-0.029552808
Y5Bi3,0,-6.229330011,-0.725373066
YBi,0,-6.07018265,-0.887368108
ZrBi2,0,-5.724481945,-0.276478002
ZrBi,0,-6.595612063,-0.372728615
Ca3Cd2,0,-1.862672083,-0.294880312
CaCd2,0,-1.617585167,-0.340041136
CaCd,0,-1.825067215,-0.366118346
CaCd6,0,-1.272675105,-0.202450889
CaCu,0,-3.198966977,-0.147739151
Ca2Cu,0,-2.812320827,-0.110447815
CaCu5,0,-3.870783615,-0.12084616
CaGa,0,-2.988380348,-0.468181936
Ca3Ga5,0,-3.157056729,-0.507599561
Ca28Ga11,0,-2.60489712,-0.310072952
CaGa4,0,-3.187834792,-0.357415364
CaGa2,0,-3.20750536,-0.514961939
CaHg3,0,-1.117274236,-0.388715553
CaHg2,0,-1.32012891,-0.449947483
CaHg,0,-1.714228205,-0.560801289
Ca3Hg2,0,-1.793794835,-0.470420626
Ca2Hg,0,-1.838341463,-0.401669058
CaIn,0,-2.842446605,-0.464935745
Ca2In,0,-2.622419018,-0.36969065
CaIn2,0,-2.929553487,-0.427260135
Ca8In3,0,-2.533094582,-0.325741666
CaIr2,0,-7.02887263,-0.451933576
Ca5Ir,0,-3.37989435,-0.23328705
Li2Ca,0,-1.955674851,-0.015971957
CaMg2,0,-1.851753195,-0.114475428
CaMg149,0,-1.629260219,-0.022266403
CaNi5,0,-5.258674398,-0.107252126
CaNi2,0,-4.710607927,-0.188837433
Ca2Pb,0,-3.128243282,-0.554447613
CaPb,0,-3.378727505,-0.519615694
CaPb3,0,-3.61723507,-0.330149044
CaPd2,0,-4.826672393,-0.703872506
CaPd,0,-4.2725849,-0.679694139
CaPd5,0,-5.022234808,-0.369525795
Ca5Pd2,0,-3.412617244,-0.501038217
Ca3Pd,0,-3.239884746,-0.441857674
Ca3Pd2,0,-3.915713693,-0.640768407
Ca3Pt2,0,-4.484776175,-0.860146586
CaPt5,0,-5.911867858,-0.530649878
Ca5Pt2,0,-3.869124024,-0.707770494
CaPt2,0,-5.64634142,-0.940734359
CaRh2,0,-5.98702839,-0.414637523
Ca5Rh,0,-3.126971122,-0.231500868
CaSn,0,-3.654308453,-0.648028039
Ca31Sn20,0,-3.445570795,-0.655648957
CaSn3,0,-3.898935935,-0.391097006
Ca2Sn,0,-3.322631813,-0.650723743
CaTl3,0,-2.51676835,-0.240571688
CaTl,0,-2.62876179,-0.443576221
CaZn2,0,-1.814434113,-0.298161769
CaZn11,0,-1.495120264,-0.161432059
Ca5Zn3,0,-1.922470036,-0.193182862
CaZn5,0,-1.614850085,-0.2203005
CaZn,0,-1.882549163,-0.244554059
CsCd13,0,-0.975188966,-0.061836347
HfCd,0,-5.525276785,-0.09077691
Hf2Cd,0,-7.006724823,-0.065636442
Cd41Ir8,0,-2.273541172,-0.060995791
KCd13,0,-0.992663959,-0.063958178
K3Cd16,0,-1.052560013,-0.106941453
LaCd,0,-3.25849261,-0.327182603
LaCd2,0,-2.63086866,-0.371750537
La13Cd58,0,-1.941943935,-0.288745257
LaCd11,0,-1.420520878,-0.169690581
Li3Cd,0,-1.838664873,-0.179001796
LiCd3,0,-1.347471101,-0.184427173
LiCd,0,-1.665426593,-0.25407309
MgCd3,0,-1.151486291,-0.064351785
MgCd,0,-1.364782303,-0.105247645
Mg3Cd,0,-1.513710593,-0.081775784
MgCd2,0,-1.229198955,-0.084597732
Mg149Cd,0,-1.62484909,-0.025111467
Na3Cd,0,-1.260414559,-0.047287319
Na26Cd141,0,-1.062786381,-0.08611019
NaCd3,0,-1.100360458,-0.086161808
CdNi,0,-3.369211451,-0.021307248
CdPd3,0,-4.377281088,-0.261633894
CdPd,0,-3.45994844,-0.411272193
Cd53Pd16,0,-2.157856311,-0.253467745
CdPt3,0,-4.97301167,-0.201706406
CdPt,0,-3.809005968,-0.32322434
Cd3Pt,0,-2.396492135,-0.196234144
RbCd13,0,-0.984138443,-0.062132794
ScCd3,0,-2.49150384,-0.221653234
ScCd7,0,-1.708540078,-0.116247597
ScCd,0,-3.9173133,-0.292346443
SrCd2,0,-1.52097554,-0.349164293
SrCd,0,-1.635910445,-0.335560753
SrCd11,0,-1.116952786,-0.137949208
SrCd6,0,-1.228698983,-0.203788817
Ti2Cd,0,-5.63767875,-0.068015729
YCd,0,-4.048291365,-0.357232113
YCd3,0,-2.60262881,-0.299732006
YCd2,0,-3.105559503,-0.339941883
ZrCd,0,-4.84711298,-0.115984823
Zr2Cd,0,-6.121681223,-0.118421798
ZrCd3,0,-2.92986708,-0.106935824
CrCo3,0,-7.747198296,-0.005526576
Fe3Co,0,-8.16741629,-0.045044553
Fe11Co5,0,-8.09378716,-0.055780206
Fe9Co7,0,-7.932992434,-0.063715046
FeCo,0,-7.84468719,-0.059774585
Ga3Co,0,-4.31548461,-0.260060945
GaCo,0,-5.34992954,-0.27631565
HfCo,0,-8.931203515,-0.399073648
HfCo2,0,-8.426104563,-0.368019872
Hf2Co7,0,-7.99535928,-0.253304706
Hf2Co,0,-9.298526396,-0.292351353
In3Co,0,-3.852460249,-0.011067912
La3Co,0,-5.576453719,-0.088040889
La2Co3,0,-6.325998323,-0.080847455
LaCo13,0,-6.986038008,-0.030480003
MgCo2,0,-5.302016963,-0.027242416
Mn3Co,0,-8.660450981,-0.013515451
Co3Mo,0,-8.092414545,-0.044333025
Nb6Co7,0,-8.653311402,-0.157250217
NbCo3,0,-8.008571085,-0.147790538
Co3Ni,0,-6.799625195,-0.021860927
CoPt,0,-6.671439205,-0.088027585
CoPt3,0,-6.3836087,-0.06348844
Co3Pt,0,-6.942462938,-0.095759958
CoRe3,0,-11.17079187,-0.060400386
Sc3Co,0,-6.747733591,-0.218835486
ScCo,0,-7.08648075,-0.3638839
ScCo2,0,-7.202438027,-0.35070868
CoSn,0,-5.660130457,-0.100434564
CoSn3,0,-4.838892114,-0.054345446
TaCo3,0,-8.527537398,-0.231155345
Ta2Co,0,-10.52225298,-0.248558068
TaCo,0,-9.726122107,-0.243352342
CoTc3,0,-9.59862759,-0.05227136
TiCo,0,-7.893170615,-0.389609768
TiCo3,0,-7.564920125,-0.258142532
Ti2Co,0,-7.918071822,-0.283322139
VCo3,0,-7.771128857,-0.166976702
V3Co,0,-8.781366608,-0.188898823
Co3W,0,-8.652597966,-0.080195681
Y8Co5,0,-6.884526929,-0.169985014
YCo,0,-6.982919563,-0.194230318
YCo3,0,-7.107093428,-0.157751635
YCo2,0,-7.073773148,-0.177982205
Y2Co17,0,-7.13158274,-0.089231578
Y3Co,0,-6.768497086,-0.140460389
Zn13Co,0,-1.739257619,-0.049490257
Zn11Co2,0,-2.256684104,-0.085831508
Zn53Co7,0,-2.031317579,-0.077487877
Zr6Co23,0,-7.62695751,-0.219543663
Zr3Co,0,-8.398935653,-0.210795598
ZrCo,0,-8.115121055,-0.286362905