pretty_formula,e_above_hull,energy_per_atom,formation_energy_per_atom
AcAgAu2,0,-3.933722015,-0.556975902
AcCdAg2,0,-2.903375885,-0.226919638
AcInAg2,0,-3.420715368,-0.284978125
Ac2AgIr,0,-5.350814888,-0.363114203
AcAg2Pb,0,-3.678050278,-0.301512559
Ac2AgPb,0,-4.064571013,-0.364061991
AcAg2Sn,0,-3.801952385,-0.351830365
AcTlAg2,0,-3.264747793,-0.225173195
AcBiAu2,0,-4.29948912,-0.656115558
CaAcAu2,0,-3.970718665,-0.801115491
AcCdAu2,0,-3.520153673,-0.622657755
AcHgAu2,0,-3.345480203,-0.600745262
AcInAu2,0,-4.009096233,-0.65231932
Ac2IrAu,0,-5.7079787,-0.609758181
NaAcAu2,0,-3.606805933,-0.60984572
AcPbAu2,0,-4.224199918,-0.626622529
AcSnAu2,0,-4.346764408,-0.675602718
SrAcAu2,0,-3.853790933,-0.763487347
AcTlAu2,0,-3.845233925,-0.584619658
Ac2ZnAu,0,-3.698764698,-0.498294195
CaAcGa2,0,-3.500689448,-0.449376794
CaAcHg2,0,-2.225432768,-0.540891609
CaAcIn2,0,-3.347103228,-0.438478125
CaAcMg2,0,-2.423071698,-0.088208284
CaAcRh2,0,-5.67194771,-0.460749471
CaAcTl2,0,-3.132221865,-0.415922054
CaAcZn2,0,-2.43565566,-0.266546314
Ac2CdGa,0,-3.400000788,-0.348198662
AcCdHg2,0,-1.819739443,-0.40730554
Ac2CdHg,0,-2.729137645,-0.360721267
AcLaCd2,0,-3.017707648,-0.291463967
AcMgCd2,0,-2.150766228,-0.260410222
AcCdRh2,0,-5.291953825,-0.352862843
Ac2CdSn,0,-3.75818753,-0.463344403
SrAcCd2,0,-2.241890105,-0.331126582
Ac2TlCd,0,-3.168434268,-0.284138563
Ac2GaCu,0,-4.101057733,-0.253116128
Ac2CuIr,0,-5.614415768,-0.309825801
Ac2CuRu,0,-5.437217618,-0.029496227
Ac2CuSn,0,-4.428108178,-0.337125572
Ac2InGa,0,-3.903067353,-0.391984232
LiAc2Ga,0,-3.512679335,-0.212567636
Ac2MgGa,0,-3.4540261,-0.229823823
SrAcGa2,0,-3.362878553,-0.390865487
Ac2ZnGa,0,-3.48189191,-0.340566667
AcInHg2,0,-2.30373674,-0.432021843
LiAcHg2,0,-2.055814928,-0.395071452
AcMgHg2,0,-2.01465613,-0.429822077
NaAcHg2,0,-1.896648648,-0.38475045
AcHgRh2,0,-5.101139568,-0.314809562
Ac2SnHg,0,-3.690801685,-0.548719535
AcSnHg2,0,-2.602672338,-0.416572663
SrAcHg2,0,-2.12499909,-0.519757519
AcTlHg2,0,-2.163516633,-0.38796438
Ac2ZnHg,0,-2.793596825,-0.33565733
Li2AcIn,0,-2.92295772,-0.249101723
SrAcIn2,0,-3.24196522,-0.412639706
Ac2TlIn,0,-3.687710738,-0.344134038
Ac2ZnIn,0,-3.375574598,-0.30559313
LiAc2Ir,0,-5.02049126,-0.263731198
Ac2NiIr,0,-6.040603203,-0.315567791
Ac2IrPd,0,-6.18869185,-0.613270416
Ac2IrRh,0,-6.608774248,-0.489756196
Ac2ZnIr,0,-4.95742289,-0.359449285
Li2AcPb,0,-3.217985578,-0.303329104
LiAc2Pb,0,-3.725187213,-0.255618813
LiAcRh2,0,-5.548856013,-0.361455457
LiAc2Ru,0,-4.86927636,-0.009384875
Li2AcSn,0,-3.391858853,-0.403618078
LiAcTl2,0,-2.996325685,-0.303823557
Li2AcTl,0,-2.778177948,-0.200484595
Ac2MgPb,0,-3.66795245,-0.274293473
Ac2MgSn,0,-3.812194888,-0.34495161
AcMgTl2,0,-2.87899161,-0.262398904
Ac2MgTl,0,-3.238494135,-0.18179828
AcMgZn2,0,-2.29531206,-0.225909819
NaAc2Pb,0,-3.522237515,-0.201514395
NaAc2Sn,0,-3.676433073,-0.282125651
NaAcTl2,0,-2.821114428,-0.277457578
AcRh2Pb,0,-5.973735308,-0.334562854
AcSnPd2,0,-5.28345993,-0.65789641
AcTlRh2,0,-5.63318382,-0.330974488
Ac2TlSn,0,-4.152123263,-0.494161786
Ac2ZnSn,0,-3.814245285,-0.429879041
SrAcTl2,0,-3.022445555,-0.385445332
SrAcZn2,0,-2.30726153,-0.217451772
Ba2(AlAg)5,0,-3.343581268,-0.281216358
Ca3Al7Ag2,0,-3.471896638,-0.312756414
Hf2Al3Ag,0,-6.025843785,-0.361747873
LaAl2Ag3,0,-3.824856997,-0.33497409
Li2AlAg,0,-2.845181923,-0.246236018
LiAlAg2,0,-3.079946553,-0.250060025
MgAlAg2,0,-2.931861928,-0.177884823
ScAlAg2,0,-4.262748905,-0.3260557
Sr2(AlAg)5,0,-3.287134805,-0.264541333
Cd2AgAu,0,-2.116809433,-0.13305485
Li2AgAu,0,-2.882858645,-0.402484915
Mg2AgAu,0,-2.772536705,-0.44398182
Sc2AgAu,0,-5.247129205,-0.55314212
Zn2AgAu,0,-2.31237078,-0.149569963
BaAgBi,0,-3.534426625,-0.649568713
Ba(AgSn)2,0,-3.524847446,-0.40347568
CaAgBi,0,-3.468700197,-0.557652378
K2AgBi,0,-2.568703143,-0.331040963
SrAgBi,0,-3.410471307,-0.605156272
Ca2Ga7Ag,0,-3.167642013,-0.357772415
CaInAg2,0,-2.903775565,-0.299152565
CaLaAg2,0,-3.47064449,-0.317014659
Ca2AgPb,0,-3.107770038,-0.469489501
Ca2AgPd2,0,-4.058970528,-0.618310891
Ca2AgSn,0,-3.247712005,-0.535847168
CaAgSn,0,-3.473163158,-0.525064502
CaZnAg,0,-2.354571378,-0.318662929
LaCdAg2,0,-3.157637388,-0.276114814
LiCd2Ag,0,-1.84953636,-0.207242235
LiCdAg2,0,-2.300597675,-0.179053354
Li2CdAg,0,-2.134820653,-0.244216954
MgCdAg2,0,-2.216050373,-0.170415474
Mg4CdAg5,0,-2.374852205,-0.225777216
CdAgPd2,0,-3.788844553,-0.260918109
Cd2AgPt,0,-2.886854355,-0.207346168
Cd2AgRh,0,-3.084928825,-0.08037671
ScCdAg2,0,-3.47398064,-0.245629641
YCdAg2,0,-3.558364615,-0.296967419
Ti4CuAg,0,-6.507908755,-0.087985951
ZrCu4Ag,0,-4.77885859,-0.149454227
LiGaAg2,0,-2.87703518,-0.224866088
Li2GaAg,0,-2.720167273,-0.298938803
MgGaAg2,0,-2.726702343,-0.150442673
Ga40AgMo8,0,-4.446824547,-0.136216032
Y2Ga3Ag,0,-4.72463095,-0.578263657
LaAgHg2,0,-2.47924013,-0.382489705
La2AgHg,0,-3.641959478,-0.38416025
Li2AgHg,0,-2.03571867,-0.297875948
AgHgPd2,0,-3.51866653,-0.143501063
Sc2AgHg,0,-4.314400848,-0.36294477
YAgHg2,0,-2.82213467,-0.345509623
Y2AgHg,0,-4.456727353,-0.43917888
LaInAg2,0,-3.707160395,-0.366356826
Li2InAg,0,-2.639911263,-0.290026568
LiInAg2,0,-2.80499171,-0.224166393
MgInAg2,0,-2.657043118,-0.152127223
Na3In2Ag,0,-2.185614913,-0.140077177
Sc2InAg,0,-4.936649313,-0.373151263
ScInAg2,0,-3.99459786,-0.306965866
YInAg2,0,-4.094767688,-0.374089496
La2(MgAg3)3,0,-3.153176049,-0.282148016
LaMgAg,0,-3.4018818,-0.273896547
La4Mg3Ag10,0,-3.413195447,-0.300142569
LaAgPb,0,-4.332260817,-0.50070047
La3(AgSn)4,0,-4.422720165,-0.585612226
La2TlAg,0,-4.10839948,-0.334720926
LiMg2Ag,0,-2.198522305,-0.211427878
Li2AgPb,0,-2.85879512,-0.26810995
Li2AgPd,0,-3.302418475,-0.34484383
Li2AgSn,0,-3.035003503,-0.370734031
Li2AgSn2,0,-3.247838467,-0.314543401
LiAg2Sn,0,-3.1261139,-0.230903806
Li2TlAg,0,-2.480333473,-0.226611424
LiZnAg2,0,-2.399985133,-0.188917694
LiZn2Ag,0,-1.996036753,-0.174696393
Mg2AgPd,0,-3.30295497,-0.49719917
Mg2AgPt,0,-3.60036446,-0.57605597
Mg2AgRh,0,-3.72715201,-0.377799593
MgScAg2,0,-3.687474735,-0.286723585
YMgAg,0,-3.924693401,-0.290208651
YMgAg2,0,-3.74915221,-0.315354863
MgZnAg2,0,-2.296762763,-0.161604746
Sc2AgOs,0,-7.054524573,-0.374045424
YAgPb,0,-4.744064147,-0.406004303
Zr5AgPb3,0,-6.548520315,-0.246906353
SrAg3Pd2,0,-3.765766458,-0.341365337
Sc2AgRu,0,-6.631908675,-0.437287064
Y2AgRu,0,-6.602533915,-0.341819909
ScAgSn,0,-4.852147193,-0.460036544
Sc2TcAg,0,-6.706631825,-0.241479145
Sc2TlAg,0,-4.766209275,-0.298873871
Sc2ZnAg,0,-4.521702893,-0.327962721
Sr(AgSn)2,0,-3.432386878,-0.358740838
YAgSn,0,-5.04865241,-0.612480165
Y2TlAg,0,-4.907743758,-0.374315959
Y2ZnAg,0,-4.61127242,-0.351439854
CaAlAu,0,-3.70793679,-0.699576443
AlCuAu2,0,-3.85473429,-0.255978188
Hf2Al3Au,0,-6.263349217,-0.525573415
LaAlAu,0,-4.720829451,-0.730895011
LaAl3Au,0,-4.54810552,-0.654903584
LiAlAu2,0,-3.603285338,-0.55235914
MnAlAu2,0,-5.107815188,-0.244069838
ScAlAu,0,-5.216709021,-0.764336681
Sr(AlAu)2,0,-3.77983646,-0.63387639
SrAl2Au3,0,-3.813163323,-0.645894185
TiAlAu,0,-5.468329355,-0.495314351
AlV9Au2,0,-7.757127463,-0.084180584
YAlAu,0,-5.305625059,-0.809191123
ZrAlAu2,0,-5.248100995,-0.53728747
BaAl9Fe2,0,-4.698761815,-0.317329813
Ba3Al3Ga2,0,-3.227757056,-0.341187381
Ba(AlGa)2,0,-3.466330538,-0.367277158
BaAl9Ni2,0,-4.296781027,-0.361808495
Ba5Al5Pb,0,-3.246104165,-0.329872853
Ba3(AlPt)4,0,-4.96247636,-0.872157333
Ba3(AlSn)2,0,-3.559219896,-0.517965291
Ba5Al5Sn,0,-3.289201275,-0.346212034
Be4AlFe,0,-4.76572655,-0.235997252
BeAlIr2,0,-7.061037285,-0.756445436
MnBe4Al,0,-4.815926252,-0.169627222
Be4AlNi,0,-4.375763623,-0.292493795
BeAlRh2,0,-6.42009325,-0.868912541
Ca(Al4Co)2,0,-4.620988397,-0.42026317
Ca4Al51Cr7,0,-4.467812949,-0.167444518
Ca(Al5Cr)2,0,-4.699783887,-0.179968279
Ca(Al10Cr)2,0,-4.31364412,-0.129355654
Ca3Al7Cu2,0,-3.694157657,-0.323757911
Ca(Al2Cu)4,0,-3.98217259,-0.260237367
Ca(AlGa)2,0,-3.449060394,-0.33429307
CaLaAl4,0,-4.06821916,-0.410975533
LiCa2Al,0,-2.559750133,-0.144149484
Ca4MgAl3,0,-2.821752295,-0.214090042
CaAl9Ni,0,-4.011263698,-0.236975875
Ca43Al16Pb13,0,-3.119496827,-0.419476556
CaAlPd,0,-4.381765783,-0.737137548
Ca2AlPd2,0,-4.401048272,-0.777115027
Ca2AlPt2,0,-4.985984,-1.012366451
CaAlPt,0,-4.907777293,-0.971745472
Ca6Al43W4,0,-4.453496149,-0.207724045
Ca(AlZn)2,0,-2.699811214,-0.290806536
Ca4AlZn43,0,-1.548425965,-0.163169503
Al12Co4Cu,0,-4.974024784,-0.414230208
Al2FeCo,0,-6.237330635,-0.470822743
AlFeCo2,0,-6.96194822,-0.354967538
AlGaCo2,0,-5.691201435,-0.43987011
HfAlCo2,0,-7.55497558,-0.574386266
Hf6Al16Co7,0,-6.390339155,-0.546711443
Al2CoIr,0,-6.64839434,-0.780887443
LaAl4Co,0,-5.024703043,-0.516320923
MnAlCo2,0,-7.13475709,-0.35292181
NbAlCo2,0,-7.42954304,-0.409235283
Al2CoRu,0,-6.620179005,-0.649540684
ScAlCo2,0,-6.584188308,-0.508365503
Sc2(Al3Co)3,0,-5.403637548,-0.56554395
SrAl9Co2,0,-4.542174828,-0.4056013
TaAlCo2,0,-7.919153523,-0.46324426
TiAlCo2,0,-7.079370103,-0.613065299
Ti13Al9Co8,0,-6.959273245,-0.516755281
AlVCo2,0,-7.17824074,-0.414561375
YAl2Co,0,-5.808337865,-0.539941653
Y2(Al3Co)3,0,-5.419814253,-0.562837114
Zr6Al16Co7,0,-6.126302848,-0.573725503
ZrAlCo2,0,-7.138022458,-0.509119003
Zr6Al2Co,0,-7.666254354,-0.344995192
La(Al10Cr)2,0,-4.477731669,-0.1654118
Mg3(Al9Cr)2,0,-4.081692048,-0.101158577
Mn2AlCr,0,-8.083758223,-0.157931832
MnAl24Cr,0,-4.265185401,-0.082476576
MnAl2Cr3,0,-7.76228289,-0.16802169
Al4CrNi15,0,-5.919014065,-0.351752699
AlCrRu2,0,-8.337633653,-0.3532556
Y6Al43Cr4,0,-4.771151487,-0.270782485
Al7FeCu2,0,-4.541177895,-0.251664128
Al37(Fe6Cu)2,0,-5.196356458,-0.325839347
HfAlCu2,0,-5.808125948,-0.332887669
Hf2Al3Cu,0,-6.321247142,-0.445891708
Al2CuIr,0,-5.778914434,-0.664083054
LaAl3Cu,0,-4.534059314,-0.47576182
La2Al3Cu7,0,-4.48592674,-0.332999511
LaAlCu4,0,-4.462442392,-0.280249405
LaAl2Cu3,0,-4.50324423,-0.379582758
LiAlCu2,0,-3.68601641,-0.222351318
Mg2Al5Cu6,0,-3.818806188,-0.238426231
MgAl2Cu,0,-3.480770938,-0.18081254
Mg3(AlCu2)2,0,-3.405378222,-0.215780408
AlCuPt2,0,-5.694647625,-0.704384313
Al7Cu2Rh,0,-4.552759112,-0.373527971
Al7Cu2Ru,0,-4.708453387,-0.337287448
ScAlCu2,0,-4.98069464,-0.41022287
TiAlCu2,0,-5.266679058,-0.305725289
Y(Al2Cu)4,0,-4.370489859,-0.305153038
Y(AlCu)6,0,-4.47911211,-0.359746198
Y3Al7Cu2,0,-4.981029689,-0.494574752
YAlCu,0,-5.233343559,-0.461750359
YAl7Cu5,0,-4.435539655,-0.343188289
ZrAlCu2,0,-5.479496805,-0.355944385
Zr6Al7Cu16,0,-5.286011659,-0.351165785
ZrAlCu,0,-5.86770607,-0.4027336
Hf(AlFe)6,0,-6.781078552,-0.380934729
HfAlFe,0,-7.808932899,-0.421533084
Al2FeIr,0,-6.873455263,-0.668489233
La(Al2Fe)4,0,-5.674735309,-0.384578803
La(Al5Fe)2,0,-4.912811159,-0.347535836
La6Al5Fe9,0,-6.442764191,-0.214448806
MnAlFe2,0,-7.639449788,-0.182696243
NbAlFe2,0,-8.062151798,-0.366925775
Al2FeNi,0,-5.953594145,-0.519316325
Al5FeNi,0,-5.092671621,-0.381040075
AlFeRh2,0,-7.328089295,-0.597603478
Sc(Al2Fe)4,0,-5.818963896,-0.422090952
Sc(AlFe)6,0,-6.514129785,-0.392375658
TaAlFe2,0,-8.57722649,-0.446398963
TiAlFe2,0,-7.593672953,-0.452449884
AlVFe2,0,-7.862438535,-0.423840905
AlFe2W,0,-8.60872872,-0.20188096
Y(Al2Fe)4,0,-5.834689685,-0.427648679
Y(Al5Fe)2,0,-5.039365601,-0.357205778
Zr(AlFe)6,0,-6.686718886,-0.394786097
Zr3AlFe8,0,-8.381881895,-0.292772227
Zr2AlFe3,0,-8.089528422,-0.385755137
La(AlGa)2,0,-4.185650064,-0.481938284
Li2AlGa,0,-2.901126355,-0.250805875
AlGaNi6,0,-5.541525748,-0.357553133
Sr(AlGa)2,0,-3.419255864,-0.36792821
Hf6Al16Ir7,0,-7.078854349,-0.811887746
HfAlMo,0,-8.515171728,-0.326934516
HfAlNi,0,-7.143856957,-0.649376082
HfAlNi2,0,-6.951822158,-0.635692989
HfAlPd2,0,-6.844061518,-0.827160304
Hf2Al3Pd,0,-6.686596723,-0.630686978
Hf6Al16Pd7,0,-6.08594939,-0.707550416
HfAlPt,0,-7.638522317,-1.052123158
Hf6Al2Pt,0,-8.61509432,-0.473024583
Hf6Al16Pt7,0,-6.462187556,-0.872772192
Hf6Al16Rh7,0,-6.699576885,-0.796326005
HfAlRh2,0,-8.125137553,-1.021043104
Hf2Al3Zn,0,-5.833499775,-0.429221916
HfAlZn,0,-5.362804287,-0.371072487
HfAl2Zn,0,-5.059246445,-0.3784218
Sr11Al4In3,0,-2.584443276,-0.262576439
La2(Al3Ir)3,0,-5.839569028,-0.823841841
LiAl2Ir,0,-5.293613445,-0.72661197
MgAlIr2,0,-6.45364607,-0.68362309
MnAlIr2,0,-8.234164083,-0.575412527
Nb2Al3Ir,0,-7.340507031,-0.618104569
Al2IrOs,0,-7.60204904,-0.707095044
Al2IrRh,0,-6.949731533,-1.020472068
Al2IrRu,0,-7.284445695,-0.875349236
Sc6Al16Ir7,0,-6.379813476,-0.861619157
ScAlIr2,0,-7.951332645,-0.998593565
Ti6Al16Ir7,0,-6.595446991,-0.754095155
Y2(Al3Ir)3,0,-6.099209427,-0.866411028
AlZnIr2,0,-6.273748513,-0.586602566
Zr6Al16Ir7,0,-6.827280381,-0.851364144
La2MgAl3,0,-4.202318183,-0.411582213
La2AlNi9,0,-5.846299477,-0.373504398
La5Al3Ni2,0,-5.145470851,-0.390882257
LaAl5Ni2,0,-5.016209018,-0.60989031
LaAlNi4,0,-5.764735892,-0.461355052
LaAl3Ni2,0,-5.248180677,-0.622456793
LaAl3Pd2,0,-5.270471445,-0.844232865
La(AlPd)2,0,-5.433073527,-0.871207867
LaAlPt,0,-5.975336189,-1.057730276
LaAl2Pt3,0,-6.210173023,-1.107743237
LaAlRh,0,-6.182425634,-0.831427817
La2(Al3Rh)3,0,-5.483605423,-0.790768725
La(Al5Ru)2,0,-5.2051369,-0.514242851
La(TiAl10)2,0,-4.417510162,-0.256457816
La(Al10V)2,0,-4.482257428,-0.217770451
La(AlZn)2,0,-3.444154668,-0.446205534
LaAlZn,0,-3.757155518,-0.434216963
LiAl2Ni,0,-4.262422775,-0.46610951
LiAlPd2,0,-4.816850588,-0.81152256
Li2AlPd,0,-3.716838808,-0.530172153
LiAl2Pd,0,-4.277213568,-0.63051428
Li2AlPt,0,-4.10861658,-0.703397235
LiAlPt2,0,-5.38437065,-0.941937243
LiAl2Pt,0,-4.690502023,-0.825250045
LiAlRh2,0,-5.75724701,-0.664725748
LiAl2Rh,0,-4.899173595,-0.70887769
LiY2Al,0,-4.890592208,-0.242881175
Mg3(Al9Mo)2,0,-4.231628691,-0.144517898
MgAlPd2,0,-4.758446283,-0.829027678
MgAlRh2,0,-5.860940625,-0.844328785
MgSc2Al,0,-4.787223068,-0.281513853
Mg3(TaAl9)2,0,-4.302985216,-0.12950902
Mg3(TiAl9)2,0,-3.987241799,-0.15797585
Mg3(Al9V)2,0,-4.078435857,-0.145735278
Mg3(Al9W)2,0,-4.371375721,-0.101892488
Y2MgAl,0,-4.869197078,-0.297395468
YMgAl,0,-4.268797567,-0.328856803
Mn8Nb3Al,0,-9.135295761,-0.188502863
MnAl2Ni,0,-6.072239918,-0.4631075
MnAlNi2,0,-6.51685098,-0.399475845
MnAlOs2,0,-9.08125971,-0.244530232
Mn2AlRe,0,-8.822663658,-0.195048932
MnAlRh2,0,-7.59062015,-0.685279735
MnAlRu2,0,-8.267236955,-0.402222553
Sc(MnAl2)4,0,-5.944026078,-0.331947475
TaMn2Al,0,-8.778413615,-0.297876893
Ta3Mn8Al,0,-9.624676437,-0.242282034
TiMn2Al,0,-7.82172793,-0.330795667
Mn2AlV,0,-8.10051578,-0.312208955
Mn2AlW,0,-8.966581753,-0.210024797
Y(MnAl2)4,0,-5.960933473,-0.338686809
Zr3Mn8Al,0,-8.759633089,-0.204244494
Ti2AlMo,0,-7.915302085,-0.314126848
NbAl2Ni9,0,-6.208738391,-0.405487393
NbAlOs2,0,-9.51166836,-0.436466405
NbAlRu2,0,-8.744074463,-0.640587583
Ti2NbAl,0,-7.686943571,-0.273069307
Ti3NbAl2,0,-7.209156213,-0.325701615
Y6Nb4Al43,0,-4.869632942,-0.333306559
Al2NiRu,0,-6.330359573,-0.691951324
ScAl2Ni,0,-5.557100005,-0.653980063
ScAlNi2,0,-6.036379758,-0.625017098
TaAl2Ni9,0,-6.384302737,-0.435851237
TaAlNi6,0,-6.708300418,-0.422038834
Ti6Al16Ni7,0,-5.65747578,-0.560236699
TiAlNi2,0,-6.42175549,-0.619910832
TiAlNi6,0,-6.261601966,-0.470142612
Al2VNi9,0,-6.113521438,-0.395813237
YAl3Ni2,0,-5.535142213,-0.656168581
Y3Al19Ni5,0,-4.928616934,-0.501895337
Y2AlNi2,0,-6.204518356,-0.55551444
YAl4Ni,0,-5.092210224,-0.552065071
YAl3Ni,0,-5.297080095,-0.598526547
YAlNi,0,-5.929691824,-0.597504698
YAl2Ni,0,-5.583381524,-0.647215384
Y3(AlNi3)2,0,-6.151161335,-0.552542871
Y4Al23Ni6,0,-4.961773628,-0.514429566
Y2(AlNi)5,0,-5.683090854,-0.634702983
ZrAl5Ni2,0,-5.447718939,-0.591445694
ZrAlNi,0,-6.67236684,-0.646800443
ZrAlNi2,0,-6.559843838,-0.595400528
Zr6Al16Ni7,0,-5.871098381,-0.639294898
Sc2AlOs,0,-7.39065526,-0.481084101
Sc6Al16Os7,0,-6.692755306,-0.605881989
TaAlOs2,0,-10.06349882,-0.552695362
TiAlOs2,0,-9.106421803,-0.585222802
AlVOs2,0,-9.293264728,-0.474691165
Y3(Al3Os)4,0,-6.346181248,-0.595732745
Zr5AlPb3,0,-6.745499268,-0.342066635
Al2PdRu,0,-6.29651213,-0.807717859
ScAlPd2,0,-6.058535393,-0.946400688
Sc6Al16Pd7,0,-5.359137177,-0.729510487
Sr2Al5Pd4,0,-4.629385502,-0.734574728
TiAlPd2,0,-6.260641825,-0.758025122
YAlPd2,0,-6.091509244,-0.946328341
YAl2Pd5,0,-5.927730243,-0.943145091
YAlPd,0,-6.02073571,-0.888033887
Y2(Al3Pd)3,0,-5.136053546,-0.692085593
Al2(Zn13Pd3)3,0,-2.366558363,-0.290958047
ZrAlPd2,0,-6.466671165,-0.80145581
Zr6Al16Pd7,0,-5.83874528,-0.751396672
Al2RuPt,0,-6.60985558,-0.902508619
Ti6Al16Pt7,0,-5.972006263,-0.808205666
TiAlPt,0,-6.818896458,-0.918209981
YAlPt,0,-6.580799058,-1.156693648
ZrAlPt,0,-7.164649325,-1.047164645
Zr6Al16Pt7,0,-6.218040609,-0.919675611
Ti2AlRe,0,-8.432986565,-0.436432793
Y(Al5Re)2,0,-5.649161109,-0.354074158
Al2RuRh,0,-6.955885563,-0.923494674
ScAlRh2,0,-7.293915,-1.09458706
Sc6Al16Rh7,0,-5.983575763,-0.829097167
TiAlRh2,0,-7.574946798,-0.985136859
Ti8Al15Rh7,0,-6.468274977,-0.771688351
Y2(Al3Rh)3,0,-5.74860244,-0.83869453
AlZnRh2,0,-5.722116113,-0.788381306
Zr6Al16Rh7,0,-6.440968489,-0.828767975
Sc2Al3Ru,0,-6.180178343,-0.648334868
TaAlRu2,0,-9.28383887,-0.744750485
TiAlRu2,0,-8.31120782,-0.761723894
AlVRu2,0,-8.48381174,-0.636953253
Y(Al5Ru)2,0,-5.319609044,-0.511830496
Zr6Al16Ru7,0,-6.721064707,-0.645573302
Sc2AlTc,0,-7.061552308,-0.367307618
Sc2AlZn,0,-4.841974053,-0.419141871
Sr3(AlSn)2,0,-3.453701579,-0.514716387
Sr11Al4Sn3,0,-2.933840253,-0.402383565
Zr5AlSn3,0,-7.101616548,-0.600071513
Y6Ta4Al43,0,-4.976466177,-0.308637452
TaAlZn,0,-5.86460441,-0.239112678
Ti2AlTc,0,-7.933939643,-0.458730956
Ti2AlW,0,-8.369911348,-0.244415346
Y6Ti4Al43,0,-4.71087453,-0.341794321
TiAl2Zn,0,-4.549345873,-0.382805738
Y6Al43W4,0,-5.027474116,-0.276318528
YAlZn,0,-4.300872442,-0.47143439
Y2AlZn,0,-4.89109568,-0.402171104
Zr2Al3Zn,0,-5.44803215,-0.512668769
ZrAl2Zn,0,-4.801232608,-0.472093821
Ba2BiAu,0,-3.615598305,-0.860286621
Ba(InAu)2,0,-3.350506851,-0.555318992
BaSn3Au,0,-3.94824091,-0.502920815
Be2RhAu,0,-4.94114281,-0.41213282
Be2RuAu,0,-5.263556318,-0.254709334
CaBiAu,0,-3.781722007,-0.723314408
Ca2BiAu,0,-3.6212643,-0.826667755
Ca(BiAu3)2,0,-3.573061906,-0.301668558
CaBiAu4,0,-3.581951247,-0.415840207
K2BiAu,0,-2.771904559,-0.423722544
La3Bi4Au3,0,-4.84044791,-0.814639894
Na2BiAu,0,-2.818164058,-0.368853436
Sr2BiAu,0,-3.487992453,-0.851995084
CaCdAu,0,-2.693050186,-0.629146113
Ca(CdAu2)2,0,-2.874579347,-0.456309345
CaCdAu2,0,-2.93609113,-0.569709456
Ca4Cd3Au,0,-2.233949276,-0.480115392
CaGaAu3,0,-3.552321992,-0.57995394
CaGaAu,0,-3.480777617,-0.709373849
Ca2Ga7Au,0,-3.283621627,-0.429544095
Ca2In4Au3,0,-3.285628356,-0.526161295
CaInAu,0,-3.342685168,-0.666406435
Ca3InAu3,0,-3.409272473,-0.754587912
Ca4In3Au10,0,-3.494689454,-0.611961611
CaIn2Au,0,-3.217583296,-0.522409662
CaLaAu2,0,-4.204462038,-0.829792537
Ca2PbAu2,0,-3.561669088,-0.707865895
Ca2PtAu,0,-4.195724308,-0.861481771
CaSnAu,0,-3.834617887,-0.739159451
CaSnAu2,0,-3.732781138,-0.592733691
Ca2(ZnAu3)3,0,-3.113052389,-0.449542564
Cd3InAu12,0,-2.927633953,-0.128769255
LaCdAu2,0,-3.76441645,-0.661854206
LaCdAu,0,-3.713004849,-0.667526684
La2CdAu2,0,-4.217263422,-0.745636495
Li2CdAu,0,-2.427222643,-0.426099109
LiCdAu2,0,-2.7145711,-0.371987109
LiCd2Au,0,-2.093812295,-0.340998335
MgCdAu2,0,-2.673946355,-0.407271786
Na6Cd16Au7,0,-1.798140817,-0.23165805
CdPd2Au,0,-3.93335566,-0.294909381
Cd2RhAu,0,-3.235933195,-0.120861245
CdSnAu,0,-2.930121487,-0.197472727
SrCdAu,0,-2.571567051,-0.613395763
YCdAu,0,-4.217412716,-0.665435054
YCdAu2,0,-4.153801175,-0.671364309
ZnCdAu2,0,-2.38631123,-0.202513695
ZrCdAu2,0,-4.45592188,-0.453450561
CsGa2Au3,0,-3.10385615,-0.305306088
CsGa9Au5,0,-3.228871528,-0.2555673
Cs3Pb4Au,0,-2.870362113,-0.267833913
CsRb2Au7,0,-2.853489086,-0.268973451
Cs4Sn2Au7,0,-3.019078828,-0.363920638
Cu2PdAu,0,-4.277986125,-0.114231835
Sc2CuAu,0,-5.55067627,-0.539799903
Zn2CuAu,0,-2.629725874,-0.150035774
HfGaAu,0,-5.93028736,-0.508516255
In(GaAu)2,0,-3.311299873,-0.236509038
K4GaAu8,0,-2.931706287,-0.341776551
La2Ga7Au,0,-4.024601525,-0.581579537
Li2GaAu,0,-3.040623523,-0.508875218
LiGaAu2,0,-3.301687188,-0.428478425
MgGaAu2,0,-3.223448594,-0.426149254
MgGaAu,0,-3.072242043,-0.433781083
Ga40Mo8Au,0,-4.466517409,-0.146886867
RbGa2Au3,0,-3.132466071,-0.313725606
Sr(GaAu)2,0,-3.454840556,-0.593228382
Sr2(GaAu2)3,0,-3.478584514,-0.557992036
YGaAu,0,-5.056244525,-0.796767168
ZrGaAu,0,-5.546915162,-0.594058535